% Model:              Test1.mph
% Version:            COMSOL 6.0.0.318
% Date:               Mar 5 2023, 19:35
% Dimension:          3
% Nodes:              9875
% Expressions:        1
% Description:        Electric potential
% Length unit:        µm
% x                       y                        z                        V (mV)
24.000000000000025        284.0000000000001        5                        159.99547558463664
23.378036221640976        284.36493035201704       6.751989437334489        167.13666031086706
23.87206619816757         287.508630778745         5                        159.99545319929487
21.808113634581122        286.1096934964014        5                        159.99547202433348
21.148103158188114        283.99999999999994       5                        159.9954963396851
23.872066274402616        179.50863202020494       5                        176.35363810694395
21.808114437589218        178.10969379319357       5                        176.3536390320501
24                        176.0000000000001        5.000000000000003        176.35360560069915
25.03886529870039         177.91906062861017       9.17002535543224         150.3265368503221
26                        178.00000000000009       5.000000000000003        176.35360104891868
25.999999999999964        181.2376215667255        5                        176.3536354273733
20.730407833905794        259.9218188154019        7.1256722807139266       328.6331396606044
24.000000000000004        260                      5                        366.2582374152015
23.691037585791705        259.8436376308037        9.251344561427851        293.89351881140743
21.263253167868445        257.30037739223076       5                        366.2583683050989
25.99999999999997         258.00000000000006       5                        366.25822326342274
26.6526125073234          261.808929550894         5                        274.19594045601764
23.36540072583228         254.53204055596188       7.435941222654045        334.2286855605637
24.000000000000004        229.99999999999994       5                        366.2582804544393
23.871993382995587        233.50877556513728       5                        366.25833644498204
21.806808943742187        232.10994424058097       5                        366.25837140280055
25.184190783203835        231.04676961420358       8.110592426695964        302.0237640129407
26.000000000000004        231.99999999999997       5                        366.2582450935277
25.999999999999968        235.23762156672532       4.999999999999998        366.2582837383139
27.742569761243036        257.4315215259386        10.557038648361706       263.86807108455105
23.541806757951186        227.39505609104825       7.279701829441678        289.8210490397364
21.148103503805807        229.99999999999991       5                        366.2583462613474
4.668842849111083         283.2478175527411        5                        224.01334553611875
6.000000000000025         286.0000000000001        5                        159.99561261155557
2.7790517595389583        284.6779622226322        5                        223.9522312776883
5.1617764697579585        285.6918867283152        7.2031592007168355       203.30716233926114
8.00000000000004          284                      5                        159.995642110524
26.00000000000002         286.0000000000001        5                        159.99545816012576
25.859857457908664        285.5404244449914        8.001542837849135        162.11068768245596
26.00000000000005         289.23762156672547       4.999999999999999        159.9954304677017
24.612684376280157        291.0231796756004        7.155690442776675        157.33094092666863
23.225368752560264        288.91058964116445       9.311380885553346        161.4183612251937
6.00000000000001          258                      5                        366.2588891787305
6.898359573127489         258.652024553            7.079447436001045        408.5978598540266
8.128925166654613         256.34310460418516       5                        366.25879602735023
8.00000000000001          260                      5                        366.2588094244284
6.000000000000024         289.2365142305148        5                        159.99556078879485
2.093419978560087         287.79389649852396       5                        207.2021908928758
-7.999999999999978        284.0000000000001        5                        193.9287488527805
-5.999999999999976        286.0000000000001        5                        193.9287429990417
-8.127933801832553        287.5086307787449        5                        193.9286749331334
-7.846961058583675        283.8324687116346        8.348040655383443        249.55521539640077
9.0293863256793           202.96810185459597       5                        176.35397316428342
7.999999999999993         206.00000000000014       5.000000000000003        176.35403305597623
5.999999999999991         204.00000000000014       5.000000000000003        176.3540382872866
9.269377699094871         203.47839353858822       7.237295461350523        194.62340912744594
9.258965918900381         177.72237661086336       5                        176.3536814392282
8.000000000000004         176.00000000000009       5                        176.35366727510444
8.874096380474077         178.65477937993148       6.8491168563740015       170.79378394288835
5.99999999999998          178.00000000000009       5                        176.3536771727622
-8.034713305788737        179.38628144722009       4.999999999999999        212.9967514378157
-6.000000000000013        178.00000000000009       5.000000000000003        212.99670777844523
-9.445340743861145        178.41692981934227       7.947522663325702        193.7976163821387
-8.000000000000012        176.0000000000001        5.000000000000003        212.9967070685571
-7.999999999999991        229.99999999999994       5                        1436.1884408932472
-5.999999999999991        231.99999999999997       5                        1436.1884408932472
-8.127933801832627        233.50863077874482       5                        1436.1884408932472
-9.665429425908782        230.93341273878863       7.916895569493955        1056.185901467773
23.41020034164561         175.18704777953607       9.170025355432239        146.34757142022394
8.528711439382473         174.58794397864494       7.498989285140239        158.76907141467515
22.661448074009627        281.6463844086845        9.64523799749663         183.19599096034014
19.820229974551268        285.05970787890243       9.726072772269779        177.14731690365252
7.322251518537343         286.81404155352635       8.2228570581951          190.94677538797671
9.001184918779824         287.9768401196287        5                        159.99555062093177
9.258966218569611         285.7223768585133        5                        159.99557605800257
10.233666438411978        286.15696738759146       8.850193892958993        188.54703602979714
6.000000000000021         312.0000000000001        5                        159.99525585696324
8.000000000000021         314.0000000000001        5                        159.99524267163977
6.16744574401418          312.4893459375294        7.69737517910307         150.19198111754864
9.029386326988078         310.9681018487548        5                        159.99526679148977
6.000000000000026         308.76348558618145       5                        159.9952844569082
11.678039492606167        311.4675675999408        7.4702694296600445       151.95401418852015
-5.999999999999997        312.0000000000001        5                        193.92818818460512
-8.886571361155873        311.10748373434905       5                        193.92821651705484
-7.2447348508931855       310.4237466371451        8.29488453201943         173.35021086619687
-7.999999999999978        314.0000000000001        5                        193.92816673520386
28.558863774338185        263.0915142365721        8.827638774088735        237.996857950181
22.81870292777765         280.59400157929065       5                        185.37072082719283
28.473988665105693        287.40868464439643       5                        152.06774829415403
26.256090181746593        282.4564606680922        4.999999999999999        168.614822386797
27.79488324035412         279.12209346128185       9.97909510943991         176.02677671540633
28.642159117036208        284.96569982767994       5                        155.8076166026817
4.024363000718109         174.47084095841083       5                        160.0788706658072
-5.227800133801296        282.42623546606796       5                        261.1450984022746
-8.836737046411985        280.9252125271162        5                        284.31775530646286
-2.3452085655178707       283.31287591535846       7.563429241622244        253.61753859779526
4.5483934684188485        262.20386718371185       5                        446.9568835321655
26.631585263625382        174.29953230828576       5                        142.77608886622036
28.88099475052062         171.52470567463112       9.612847644915854        125.76348957392473
30.227008578986325        176.56222013564528       5                        135.5929165122906
31.545322828617067        174.69700003387274       9.524247641216549        126.58320287065591
28.60924348906618         180.11887881877945       5                        150.06722804995073
26.516183362578328        232.10551738522574       11.52981802452238        271.45313573991467
27.290244577207492        225.74097421926209       10.897935605474906       244.56744336007773
30.140342683625025        229.51352333533177       5                        249.56072653391672
26.496270158997177        228.2747642039679        4.999999999999999        279.6365845744244
26.000000000000053        312.0000000000001        5                        159.99517615209695
23.11342863884425         311.1074837343491        5                        159.99521041612428
24.795016150996272        310.4108876113699        9.423480891291668        135.54078395970154
24.000000000000025        314.0000000000001        5                        159.9951701355372
9.74697570787948          316.88100699378475       10.267021074865285       133.4388680087636
26.806096265221516        314.3591387814673        5                        129.8174180329868
27.357236911785726        314.39058946054405       9.583866237572456        119.35572434135555
23.041625951087777        314.5280379283865        8.696697854686837        131.22942119459248
28.91187037259602         313.2687341443389        5                        121.65208959764084
29.276526049100756        310.8941315443554        9.637818058191257        120.69812015225986
22.580091939956212        264.3240450348464        5                        277.4212870811849
30.89219440033436         288.6189936853576        9.236294566385881        142.8456879041645
32.75104314912829         283.75052636838126       10.393153727569198       146.20874551504178
29.858144534391162        233.62235877252934       5                        268.83989949927326
4.334891488028338         310.9786918750585        10.394750358206139       150.04350705275655
2.366211853975183         309.4919840490609        5                        157.66059211802732
1.7328597430380708        313.4538217667487        4.999999999999999        149.50099826648034
0.25312569554909475       315.6880372790657        9.265391894584257        142.87916125612801
5.587215358892616         315.7291316442988        5                        143.01557853860132
4.545474782296562         319.21133989131505       10.593503290410483       129.69638393023538
-25.99999999999998        312.0000000000001        5                        193.9281604085703
-22.970613673011783       310.96810184875477       5                        193.9281993717345
-23.999999999999975       314.0000000000001        5                        193.9281463213171
-24.744564633771407       310.24489612865165       7.094632252935204        175.35200713968914
-25.691240003441727       257.5990962828368        0                        90.38854910638739
-22.496250498067194       259.14415102039885       0                        86.76964595029338
-23.856201707672156       257.79330085137974       -2.956455794805163       87.9624990425529
-25.380260024569424       260.62003000392315       0                        90.17951904810364
-26.00000000000003        204.00000000000014       5.000000000000003        212.99724105659428
-23.86655527100749        202.3239153168915        4.999999999999998        212.9971915261392
-24.00000000000003        206.00000000000014       5.000000000000003        212.99727456343072
-25.728231106340026       202.39224582532614       8.430523717261506        234.9859001945421
8.00000000000004          229.99999999999991       5                        366.25884131129493
4.71891014495896          229.1982900519457        5                        452.1215488117399
7.103550483055557         228.52499096566194       8.779670801211687        409.18456226133753
5.999999999999984         231.99999999999997       5                        366.25891313320113
5.920876414411832         226.31454556293988       5                        416.0873437902354
9.514066259968834         226.342130320544         5                        370.2629648582363
10.851896496194206        229.99999999999986       5                        366.25872119071386
11.12226444791564         231.25952446727547       8.329971973965586        372.7917489939155
9.001058817365806         233.976743981264         5                        366.25878961101677
7.52849406111847          233.05528715345687       8.92214417015975         419.5627159544323
5.999999999999983         235.23651423051464       5                        366.25892263693237
9.258965380345078         231.72237642153473       5                        366.2587761432333
4.0783482087085225        232.82776272459915       8.92214417015975         496.38197541021015
8.596261249855973         281.92371898662253       10.134334167347955       225.68207907408492
5.322707259715944         282.04371106821225       7.924260849282452        235.88265609716373
-5.860875567412611        279.21329318268886       7.38071853508029         309.2339252503609
-1.3195376052376924       260.18225067264996       9.431555216606196        620.217108277724
-5.344559004679665        259.3031873565826        9.012619656923734        822.4785788382711
-1.3904905318139946       264.6433284671284        7.564120841046245        539.8461900390909
-5.543826435882637        261.56996999876543       5                        858.0182369091107
-3.4448387811676326       259.11615388107515       5                        829.8946706572871
-5.999999999999964        258.00000000000006       5                        1436.1884408932472
-3.3989565700581976       257.00819216570693       5                        902.3323631558216
-7.999999999999991        260                      5                        1436.1884408932472
-4.22060562941283         256.31584290786714       7.123938717472564        929.7308695000752
-8.886571361155873        257.107483734349         5                        1436.1884408932472
-8.236587898923524        257.7433820994365        8.374948153433296        1026.4271125863281
-10.851896841811929       260                      5                        1436.1884408932472
-5.9999999999999645       254.7623784332747        5                        1436.1884408932472
-7.3074821056816734       253.3609543487662        8.874863195665567        1032.4923132932165
-4.492628250526366        287.31162365958676       10.91146989700569        227.88841561442774
-23.99999999999997        229.99999999999994       5                        1436.1884408932472
-22.741033781430477       231.72237685851314       5                        1436.1884408932472
-25.999999999999993       231.99999999999997       5                        1436.188440893247
-22.128155146847142       230.52892879528184       8.086816628477782        1025.738397084685
-25.328605388275943       227.36267035073058       8.015616511930041        762.0512901862053
-5.402857008251501        229.7007792092385        10.16406384057791        745.7760187364435
-4.982504255714396        228.31341553996484       5                        811.654795512011
8.066721860642925         206.81162848605481       8.801608545082964        227.86381306205573
4.398714458733149         208.0560988855046        5                        252.15637678623258
24.000000000000004        206.00000000000014       5.000000000000003        176.3538934719539
27.68902039026735         206.46708660244929       5                        179.4168194986876
25.30356306963514         209.98932907751123       5                        195.7825362097415
23.895595681152           206.05815191554086       9.715757125968597        187.309237073231
23.11342863884425         203.1074837343553        5                        176.3538765036781
25.99999999999997         204.00000000000014       5                        176.35387501536982
23.293793439000126        201.226439937193         7.930158490680697        177.27363675782738
21.148103158188054        206.00000000000014       5.000000000000003        176.35390892291937
22.44857171769085         209.21274000895153       4.999999999999999        199.3692153627858
28.564716322874034        207.23455606886523       9.480073015972888        179.61092708382694
27.944750931600304        202.69356190346693       7.207138365736012        171.8627168515836
9.488190821152156         227.8516918793782        12.559341602423373       369.6534072606274
-5.359775065948995        174.23801409859317       5                        175.9201916209336
-6.681898253396868        173.39458740643283       10.96378607879895        163.84994615944169
-4.953746482099815        179.44540204623522       9.363896912631983        182.22122090817632
-8.000000000000012        206.00000000000014       5.000000000000003        212.99728952881676
-10.73263093385404        203.19400900989018       5                        212.99720816506675
-6.000000000000043        204.00000000000014       5                        212.9972459873305
-9.611397243308403        204.1206460651409        8.56705436105536         246.53492036739794
-3.931940305184339        203.64807107050663       6.990893069209392        242.43941766076654
-4.053183621944904        205.97113198585822       9.789798498877508        264.91473900234797
-7.64674758664306         210.39640238238619       8.919452643166714        320.64966969454525
-5.291727636430334        207.5990152367927        5                        275.22604437187243
-1.218490848950704        209.75267953599442       7.248789108820337        295.62255029442264
-0.9394012218901502       207.7737883140681        5                        274.538812736339
-3.171269139603435        205.10182353084448       5                        251.45649552099206
-22.970613673011783       256.96810184875466       5                        1436.1884408932472
-23.99999999999999        260                      5                        1436.1884408932472
-23.935756486690874       257.23810303353724       7.618980216290542        1103.8083044654338
-21.148103158188054       259.99999999999994       4.999999999999998        1436.1884408932472
-25.999999999999993       258                      5                        1436.1884408932472
-25.999999999999993       254.76348558618136       5                        1436.1884408932472
-26.49024413233186        254.21596467320938       7.727258431201058        1019.3896612992415
-4.9002444363788165       313.55218493112955       8.75709828390231         157.67809586578463
-4.008942859858699        315.10246621467854       5                        154.25821632106155
-27.42240481987036        312.5786443525878        6.856684178333874        155.04854625996688
-24.23521940864203        312.3511888499983        9.846526447814048        156.95942866836313
-24.00000000000001        176.0000000000001        5                        212.9966850684355
-26.000000000000036       178.00000000000009       5                        212.99669674278235
-24.143154137443325       178.09870566135967       9.673599586612928        180.20985964854248
-22.599989483436183       179.2060671933078        5                        212.99674424859498
-27.840463931537077       174.86911369861315       5                        167.3498337291263
-28.929451594518884       175.8535416853397        8.191247681932815        163.4377189508768
-7.756686112350621        229.88494588681755       -2.2815110962334675      71.74546549492533
-8.308593115662417        231.2987932393963        0                        72.31219715478731
-6.674356164801368        227.86643653164458       0                        70.94168054294221
-5.270094512745932        231.16158802617625       0                        71.14160030653444
-6.428114421803999        233.81736377774374       0                        72.0887479845969
8.41597736678095          284.0917551287957        0                        69.90533223432058
4.7936655049085175        284.4342140787717        0                        70.26936831625572
7.305664577621166         285.16451555652503       -2.9337587238343272      69.79192624401502
6.922108898654503         280.51045693864063       0                        70.4306409802056
7.597630292512945         287.1268648055216        0                        69.57953890836258
24.084666782172807        204.57704226634257       -2.6066561825735897      62.50141470074337
23.362503864777885        203.08663419823318       0                        62.198412962355036
27.63339753001737         204.4507466964631        0                        62.77326754524241
23.390777237632           206.88440336334156       0                        62.977583272364534
20.62850119248987         205.14263257366105       0                        62.526851985353154
25.758990853945107        316.6396403401868        5                        122.01550490853448
23.382811751885765        312.7455851804922        0                        66.25041053204187
26.153226308600694        312.5655106168891        0                        67.16846263432609
23.721216397568785        313.63409316606385       -2.299490191862837       66.06155461415284
25.59079289006465         315.60710621207596       0                        66.35208823140906
25.412859378459096        310.37436198397313       0                        67.40071762283496
29.86685880531549         316.7294025618558        5                        107.91865892624266
-27.89779524784367        228.53852461558833       5                        771.1417424253515
-28.891933718678303       260.01736847352873       0                        94.97343317116146
-28.179608384972898       257.44133170220664       -2.6543863447011007      93.50448876631843
-26.105486023586728       316.0523799672205        8.14444455624532         142.02098197506317
-25.81649549651688        315.359548150464         5                        152.97971640647373
-22.642894103479545       316.39952785753246       5                        154.97847014293873
-27.931689799416528       313.3444998848547        5                        152.1136945289951
-28.291829002014037       310.991512839529         5                        157.36638133595602
-22.965982938743892       206.1877571110046        8.92505501418301         266.9329375343557
-28.39470538293841        207.33466649156213       8.925055014183007        274.43214027323035
-22.00451751472735        211.01503046284074       9.109743802172597        333.03883126480173
-26.987451160445158       208.11773653417367       5                        281.58414998070964
-32.00554804657714        208.29381876111512       5                        275.7325555894563
-29.73402057300585        213.2565822175781        5                        339.4564633331484
-29.620796443749818       204.9551404875725        5                        251.19389112351644
-25.999999999999986       286.0000000000001        5                        193.92869277573254
-25.999999999999986       289.2365142305148        5                        193.92862304460405
-28.450293943447264       287.2313383762417        5                        208.97444765706467
-25.448870406168435       287.19734159692973       8.426822364242799        215.63230167922308
-22.998815081220304       287.9768401196289        5                        193.92864276674646
-22.741033781430477       285.7223768585135        5                        193.92868235852805
-23.99999999999997        284.0000000000001        5                        193.92874263808173
-21.707893846333093       284.88463858571424       8.666515460274379        235.59659970206854
-28.69712932311922        284.9020481339105        5                        224.68457280055753
-26.85972475504787        283.5416735375566        5                        235.03163213972377
-28.529917091163433       285.47877394113357       9.19458526550396         225.15942535960667
-30.12320138959899        281.060123417472         5                        256.76629714376395
-22.4616850722733         280.0452636491047        5                        294.4413164659244
-25.710075994965834       282.5457925453433        7.947177040284731        254.94425667016642
-20.128920449063088       281.51087569317883       8.138445655044798        277.94005343824364
-25.648575567707848       281.12306986689185       4.999999999999999        270.1583450743147
6.0559293048711345        232.13383032564968       12.844288340319501       438.3140504372428
-8.337520721595553        266.6699551025359        11.303110874305878       563.0031485543145
-9.751914122450785        259.85007769321993       8.94238906549311         938.2902708161382
-5.147020545338052        256.63111904662327       13.665995029305142       686.9721451924746
-23.202848032366237       283.3513486216392        12.333030920548756       258.33638194148165
-22.728927094332217       262.9182111594582        4.999999999999999        863.6489310011565
-23.91990043883656        261.2108400045104        7.649502485358679        897.8712992358502
-21.549783344104195       261.00368365544085       11.223278268407128       777.4068161541147
-18.638603579063517       258.10677595748336       8.841530105814837        1048.6418224749216
-26.156966081072913       261.50771691469276       4.999999999999999        866.2110557796557
-26.797976521937013       267.0127445153272        5                        547.7843123507017
-27.17220316910302        214.29906339559483       9.524247641216549        363.3910305913707
-28.35499067188434        259.13459945170143       5                        843.4503106581309
-26.874255475028658       258.51164576344235       10.262042730869474       772.8311290541245
-25.23462859921413        228.38974900801617       0                        81.56209762052684
-22.29692982644913        229.62543591542232       0                        79.74839300366884
-25.3291910760942         229.43042514849915       -3.7720021625253066      81.84541311270137
-25.540183594837515       232.01895439593716       0                        83.45199737258885
-29.3284334400213         229.16137716922398       0                        85.7413176313469
-28.6095402388796         283.72620950602544       13.389170531007917       241.64123910053996
-32.3047701194398         280.86310475301275       9.19458526550396         248.26674495846353
-31.239274415522896       262.44089717685415       10.726428228112741       530.2241036455974
470.63016287481884        296.99099813215935       549.4242565349555        4.121007979299578
514.4033978954525         190.89553533619397       670.383579925413         1.7778489765890841
670.3835799254131         190.89553533619397       514.4033978954525        1.7316029403791218
602.7592148204238         395.15475646288576       592.2046343529121        1.5256593894998554
386.71239268655773        296.55221383375806       615.5602578065258        4.104592436834709
434.9236744439016         394.2771878660831        724.4766368960527        1.5603215375807127
495.8957919292891         148.49549906607965       475.37511827127616       5.501736362110396
597.5052301026326         -7.317328675189918E-14   597.5052301026328        1.8286978952520552
624.2501178918513         99.41361990071641        376.5655119549763        4.375781371137292
731.7905618220453         -7.067987840496541E-14   422.4994498641894        1.7811054208990782
784.0731017792676         170.30582876582798       315.04661729058137       1.6953944038806465
521.1614209837593         -5.6486062143891255E-14  401.3259800075969        6.455728979840002
333.13389464623145        598.6993590415337        776.5608850810304        1.2440765418632562
341.35770819792924        548.4164630879253        602.6875972447283        3.2485403181823918
282.6206915768307         395.8479086535027        796.3356984919325        1.579041065029944
517.7049131916192         597.3120137073017        667.8372727373472        1.2255411152419509
422.4994498641894         800                      731.7905618220454        0.9700922250816081
449.3007466875874         458.84091639077667       539.8733002240838        3.6723362504293866
512.1391347590878         600.7855279947814        529.8598908083297        2.29323891118301
670.3835799254126         609.1044646638059        514.4033978954529        1.1813582834869707
597.5052301026327         799.9999999999999        597.5052301026327        0.9551027676212752
420.532487233081          799.9999999999998        555.3048110962468        1.2559238627213103