% Model:              Test1.mph
% Version:            COMSOL 6.0.0.318
% Date:               Feb 27 2023, 14:24
% Dimension:          3
% Nodes:              10903
% Expressions:        201
% Description:        Electric potential
% Length unit:        µm
% x                       y                        z                        V (mV) @ t=0        V (mV) @ t=0.005
-422.49944986418944       800.0000000000001        -731.7905618220452       -50                 -50      
